<?xml version="1.0" encoding="UTF-8"?>

<!-- generated on 2024-04-15 16:06:30 by Eclipse SUMO GUI Version 1.19.0
<configuration xmlns:xsi="http://www.w3.org/2001/XMLSchema-instance" xsi:noNamespaceSchemaLocation="http://sumo.dlr.de/xsd/sumoConfiguration.xsd">

    <input>
        <net-file value="example1/rilsa1.net.xml"/>
        <route-files value="example1/genroutes.rou.xml"/>
        <additional-files value="example1/vtypes.add.xml,example1/rilsa1_tls.add.xml"/>
    </input>

    <output>
        <tripinfo-output value="example1/tripinfos.xml"/>
    </output>

    <report>
        <log value="example1/sumo_log.txt"/>
    </report>

    <traci_server>
        <remote-port value="54449"/>
    </traci_server>

</configuration>
-->

<tripinfos xmlns:xsi="http://www.w3.org/2001/XMLSchema-instance" xsi:noNamespaceSchemaLocation="http://sumo.dlr.de/xsd/tripinfo_file.xsd">
</tripinfos>
